 CRYSTAL
 PRIMVEC
    5.421888727    0.000000000    0.000000000
   -0.000000000    5.421888727    0.000000000
    0.000000000    0.000000000    5.421888727
 PRIMCOORD
           8           1
Ag        0.000000000    0.000000000    2.710944414
Ag        1.355472207    4.066416621    1.355472207
Ag        0.000000000    2.710944414    0.000000000
Ag        1.355472207    1.355472207    4.066416621
Ag        2.710944414    0.000000000    0.000000000
Ag        4.066416621    4.066416621    4.066416621
Ag        2.710944414    2.710944414    2.710944414
Ag        4.066416621    1.355472207    1.355472207
BEGIN_BLOCK_DATAGRID_3D
3D_PWSCF
BEGIN_DATAGRID_3D_UNKNOWN
          61          61          61
  0.000000  0.000000  0.000000
    5.421889    0.000000    0.000000
   -0.000000    5.421889    0.000000
    0.000000    0.000000    5.421889
  0.533446E-02  0.534994E-02  0.541358E-02  0.555350E-02  0.580510E-02  0.620061E-02
  0.677126E-02  0.756376E-02  0.854680E-02  0.963306E-02  0.108005E-01  0.122728E-01
  0.144658E-01  0.175460E-01  0.214145E-01  0.261026E-01  0.329372E-01  0.450228E-01
  0.660876E-01  0.993716E-01  0.150028E+00  0.241605E+00  0.440323E+00  0.849474E+00
  0.147493E+01  0.198937E+01  0.188760E+01  0.115310E+01  0.391918E+00  0.516207E-01
  0.137251E-03  0.516207E-01  0.391918E+00  0.115310E+01  0.188760E+01  0.198937E+01
  0.147493E+01  0.849474E+00  0.440323E+00  0.241605E+00  0.150028E+00  0.993716E-01
  0.660876E-01  0.450228E-01  0.329372E-01  0.261026E-01  0.214145E-01  0.175460E-01
  0.144658E-01  0.122728E-01  0.108005E-01  0.963306E-02  0.854680E-02  0.756376E-02
  0.677126E-02  0.620061E-02  0.580510E-02  0.555350E-02  0.541358E-02  0.534994E-02
  0.533446E-02  0.534994E-02  0.536973E-02  0.545030E-02  0.561851E-02  0.589200E-02
  0.628789E-02  0.684095E-02  0.761014E-02  0.857170E-02  0.964192E-02  0.107999E-01
  0.122581E-01  0.144294E-01  0.174904E-01  0.213409E-01  0.259887E-01  0.326911E-01
  0.444814E-01  0.650458E-01  0.976017E-01  0.146883E+00  0.234531E+00  0.422671E+00
  0.811328E+00  0.141911E+01  0.195716E+01  0.193915E+01  0.129084E+01  0.538554E+00
  0.139705E+00  0.516207E-01  0.139705E+00  0.538554E+00  0.129084E+01  0.193915E+01
  0.195716E+01  0.141911E+01  0.811328E+00  0.422671E+00  0.234531E+00  0.146883E+00
  0.976017E-01  0.650458E-01  0.444814E-01  0.326911E-01  0.259887E-01  0.213409E-01
  0.174904E-01  0.144294E-01  0.122581E-01  0.107999E-01  0.964192E-02  0.857170E-02
  0.761014E-02  0.684095E-02  0.628789E-02  0.589200E-02  0.561851E-02  0.545030E-02
  0.536973E-02  0.534994E-02  0.541358E-02  0.545030E-02  0.558054E-02  0.581550E-02
  0.613619E-02  0.653372E-02  0.704725E-02  0.775906E-02  0.866757E-02  0.970047E-02
  0.108370E-01  0.122581E-01  0.143649E-01  0.173615E-01  0.211520E-01  0.256885E-01
  0.320272E-01  0.429814E-01  0.621063E-01  0.925658E-01  0.138099E+00  0.215370E+00
  0.375353E+00  0.707169E+00  0.125634E+01  0.183332E+01  0.202419E+01  0.164012E+01
  0.100009E+01  0.538554E+00  0.391918E+00  0.538554E+00  0.100009E+01  0.164012E+01
  0.202419E+01  0.183332E+01  0.125634E+01  0.707169E+00  0.375353E+00  0.215370E+00
  0.138099E+00  0.925658E-01  0.621063E-01  0.429814E-01  0.320272E-01  0.256885E-01
  0.211520E-01  0.173615E-01  0.143649E-01  0.122581E-01  0.108370E-01  0.970047E-02
  0.866757E-02  0.775906E-02  0.704725E-02  0.653372E-02  0.613619E-02  0.581550E-02
  0.558054E-02  0.545030E-02  0.541358E-02  0.555350E-02  0.561851E-02  0.581550E-02
  0.612092E-02  0.648822E-02  0.689559E-02  0.737715E-02  0.802916E-02  0.888364E-02
  0.988450E-02  0.110054E-01  0.123837E-01  0.143973E-01  0.172855E-01  0.209699E-01
  0.253422E-01  0.311586E-01  0.408666E-01  0.577926E-01  0.850170E-01  0.125281E+00
  0.189074E+00  0.312294E+00  0.565079E+00  0.101081E+01  0.157465E+01  0.197686E+01
  0.197149E+01  0.164012E+01  0.129084E+01  0.115310E+01  0.129084E+01  0.164012E+01
  0.197149E+01  0.197686E+01  0.157465E+01  0.101081E+01  0.565079E+00  0.312294E+00
  0.189074E+00  0.125281E+00  0.850170E-01  0.577926E-01  0.408666E-01  0.311586E-01
  0.253422E-01  0.209699E-01  0.172855E-01  0.143973E-01  0.123837E-01  0.110054E-01
  0.988450E-02  0.888364E-02  0.802916E-02  0.737715E-02  0.689559E-02  0.648822E-02
  0.612092E-02  0.581550E-02  0.561851E-02  0.555350E-02  0.580510E-02  0.589200E-02
  0.613619E-02  0.648822E-02  0.688953E-02  0.731170E-02  0.777808E-02  0.839323E-02
  0.923018E-02  0.102463E-01  0.113948E-01  0.127578E-01  0.146691E-01  0.174077E-01
  0.209357E-01  0.251058E-01  0.303353E-01  0.385693E-01  0.528012E-01  0.759633E-01
  0.110231E+00  0.160816E+00  0.248643E+00  0.420644E+00  0.736125E+00  0.119891E+01
  0.167846E+01  0.197686E+01  0.202419E+01  0.193915E+01  0.188760E+01  0.193915E+01
  0.202419E+01  0.197686E+01  0.167846E+01  0.119891E+01  0.736125E+00  0.420644E+00
  0.248643E+00  0.160816E+00  0.110231E+00  0.759633E-01  0.528012E-01  0.385693E-01
  0.303353E-01  0.251058E-01  0.209357E-01  0.174077E-01  0.146691E-01  0.127578E-01
  0.113948E-01  0.102463E-01  0.923018E-02  0.839323E-02  0.777808E-02  0.731170E-02
  0.688953E-02  0.648822E-02  0.613619E-02  0.589200E-02  0.580510E-02  0.620061E-02
  0.628789E-02  0.653372E-02  0.689559E-02  0.731170E-02  0.774301E-02  0.820975E-02
  0.882333E-02  0.969177E-02  0.107829E-01  0.120186E-01  0.134133E-01  0.152281E-01
  0.177763E-01  0.210888E-01  0.250193E-01  0.296874E-01  0.364289E-01  0.477816E-01
  0.664393E-01  0.944376E-01  0.133910E+00  0.194218E+00  0.301107E+00  0.494967E+00
  0.804758E+00  0.119891E+01  0.157465E+01  0.183332E+01  0.195716E+01  0.198937E+01
  0.195716E+01  0.183332E+01  0.157465E+01  0.119891E+01  0.804758E+00  0.494967E+00
  0.301107E+00  0.194218E+00  0.133910E+00  0.944376E-01  0.664393E-01  0.477816E-01
  0.364289E-01  0.296874E-01  0.250193E-01  0.210888E-01  0.177763E-01  0.152281E-01
  0.134133E-01  0.120186E-01  0.107829E-01  0.969177E-02  0.882333E-02  0.820975E-02
  0.774301E-02  0.731170E-02  0.689559E-02  0.653372E-02  0.628789E-02  0.620061E-02
  0.677126E-02  0.684095E-02  0.704725E-02  0.737715E-02  0.777808E-02  0.820975E-02
  0.870040E-02  0.935265E-02  0.102844E-01  0.114760E-01  0.128223E-01  0.142766E-01
  0.160079E-01  0.183396E-01  0.213841E-01  0.250271E-01  0.292016E-01  0.346246E-01
  0.432357E-01  0.574011E-01  0.791183E-01  0.109553E+00  0.151476E+00  0.215530E+00
  0.322530E+00  0.494967E+00  0.736125E+00  0.101081E+01  0.125634E+01  0.141911E+01
  0.147493E+01  0.141911E+01  0.125634E+01  0.101081E+01  0.736125E+00  0.494967E+00
  0.322530E+00  0.215530E+00  0.151476E+00  0.109553E+00  0.791183E-01  0.574011E-01
  0.432357E-01  0.346246E-01  0.292016E-01  0.250271E-01  0.213841E-01  0.183396E-01
  0.160079E-01  0.142766E-01  0.128223E-01  0.114760E-01  0.102844E-01  0.935265E-02
  0.870040E-02  0.820975E-02  0.777808E-02  0.737715E-02  0.704725E-02  0.684095E-02
  0.677126E-02  0.756376E-02  0.761014E-02  0.775906E-02  0.802916E-02  0.839323E-02
  0.882333E-02  0.935265E-02  0.100573E-01  0.110441E-01  0.123150E-01  0.137524E-01
  0.152631E-01  0.169203E-01  0.190151E-01  0.217464E-01  0.250559E-01  0.288018E-01
  0.332032E-01  0.394869E-01  0.496005E-01  0.653891E-01  0.880366E-01  0.118099E+00
  0.158083E+00  0.215530E+00  0.301107E+00  0.420644E+00  0.565079E+00  0.707169E+00
  0.811328E+00  0.849474E+00  0.811328E+00  0.707169E+00  0.565079E+00  0.420644E+00
  0.301107E+00  0.215530E+00  0.158083E+00  0.118099E+00  0.880366E-01  0.653891E-01
  0.496005E-01  0.394869E-01  0.332032E-01  0.288018E-01  0.250559E-01  0.217464E-01
  0.190151E-01  0.169203E-01  0.152631E-01  0.137524E-01  0.123150E-01  0.110441E-01
  0.100573E-01  0.935265E-02  0.882333E-02  0.839323E-02  0.802916E-02  0.775906E-02
  0.761014E-02  0.756376E-02  0.854680E-02  0.857170E-02  0.866757E-02  0.888364E-02
  0.923018E-02  0.969177E-02  0.102844E-01  0.110441E-01  0.120515E-01  0.133364E-01
  0.147989E-01  0.163260E-01  0.179094E-01  0.197568E-01  0.221294E-01  0.250559E-01
  0.283959E-01  0.320809E-01  0.366397E-01  0.434546E-01  0.541291E-01  0.698919E-01
  0.912336E-01  0.118099E+00  0.151476E+00  0.194218E+00  0.248643E+00  0.312294E+00
  0.375353E+00  0.422671E+00  0.440323E+00  0.422671E+00  0.375353E+00  0.312294E+00
  0.248643E+00  0.194218E+00  0.151476E+00  0.118099E+00  0.912336E-01  0.698919E-01
  0.541291E-01  0.434546E-01  0.366397E-01  0.320809E-01  0.283959E-01  0.250559E-01
  0.221294E-01  0.197568E-01  0.179094E-01  0.163260E-01  0.147989E-01  0.133364E-01
  0.120515E-01  0.110441E-01  0.102844E-01  0.969177E-02  0.923018E-02  0.888364E-02
  0.866757E-02  0.857170E-02  0.854680E-02  0.963306E-02  0.964192E-02  0.970047E-02
  0.988450E-02  0.102463E-01  0.107829E-01  0.114760E-01  0.123150E-01  0.133364E-01
  0.145865E-01  0.160068E-01  0.174859E-01  0.189714E-01  0.205711E-01  0.225458E-01
  0.250271E-01  0.279233E-01  0.310792E-01  0.345416E-01  0.390019E-01  0.456949E-01
  0.557650E-01  0.698919E-01  0.880366E-01  0.109553E+00  0.133910E+00  0.160816E+00
  0.189074E+00  0.215370E+00  0.234531E+00  0.241605E+00  0.234531E+00  0.215370E+00
  0.189074E+00  0.160816E+00  0.133910E+00  0.109553E+00  0.880366E-01  0.698919E-01
  0.557650E-01  0.456949E-01  0.390019E-01  0.345416E-01  0.310792E-01  0.279233E-01
  0.250271E-01  0.225458E-01  0.205711E-01  0.189714E-01  0.174859E-01  0.160068E-01
  0.145865E-01  0.133364E-01  0.123150E-01  0.114760E-01  0.107829E-01  0.102463E-01
  0.988450E-02  0.970047E-02  0.964192E-02  0.963306E-02  0.108005E-01  0.107999E-01
  0.108370E-01  0.110054E-01  0.113948E-01  0.120186E-01  0.128223E-01  0.137524E-01
  0.147989E-01  0.160068E-01  0.173630E-01  0.187630E-01  0.201287E-01  0.214903E-01
  0.230485E-01  0.250193E-01  0.274035E-01  0.300564E-01  0.328388E-01  0.358802E-01
  0.398507E-01  0.456949E-01  0.541291E-01  0.653891E-01  0.791183E-01  0.944376E-01
  0.110231E+00  0.125281E+00  0.138099E+00  0.146883E+00  0.150028E+00  0.146883E+00
  0.138099E+00  0.125281E+00  0.110231E+00  0.944376E-01  0.791183E-01  0.653891E-01
  0.541291E-01  0.456949E-01  0.398507E-01  0.358802E-01  0.328388E-01  0.300564E-01
  0.274035E-01  0.250193E-01  0.230485E-01  0.214903E-01  0.201287E-01  0.187630E-01
  0.173630E-01  0.160068E-01  0.147989E-01  0.137524E-01  0.128223E-01  0.120186E-01
  0.113948E-01  0.110054E-01  0.108370E-01  0.107999E-01  0.108005E-01  0.122728E-01
  0.122581E-01  0.122581E-01  0.123837E-01  0.127578E-01  0.134133E-01  0.142766E-01
  0.152631E-01  0.163260E-01  0.174859E-01  0.187630E-01  0.200802E-01  0.213397E-01
  0.225089E-01  0.236874E-01  0.251058E-01  0.268975E-01  0.289839E-01  0.312051E-01
  0.334552E-01  0.358802E-01  0.390019E-01  0.434546E-01  0.496005E-01  0.574011E-01
  0.664393E-01  0.759633E-01  0.850170E-01  0.925658E-01  0.976017E-01  0.993716E-01
  0.976017E-01  0.925658E-01  0.850170E-01  0.759633E-01  0.664393E-01  0.574011E-01
  0.496005E-01  0.434546E-01  0.390019E-01  0.358802E-01  0.334552E-01  0.312051E-01
  0.289839E-01  0.268975E-01  0.251058E-01  0.236874E-01  0.225089E-01  0.213397E-01
  0.200802E-01  0.187630E-01  0.174859E-01  0.163260E-01  0.152631E-01  0.142766E-01
  0.134133E-01  0.127578E-01  0.123837E-01  0.122581E-01  0.122581E-01  0.122728E-01
  0.144658E-01  0.144294E-01  0.143649E-01  0.143973E-01  0.146691E-01  0.152281E-01
  0.160079E-01  0.169203E-01  0.179094E-01  0.189714E-01  0.201287E-01  0.213397E-01
  0.224991E-01  0.235271E-01  0.244268E-01  0.253422E-01  0.264857E-01  0.279209E-01
  0.295399E-01  0.312051E-01  0.328388E-01  0.345416E-01  0.366397E-01  0.394869E-01
  0.432357E-01  0.477816E-01  0.528012E-01  0.577926E-01  0.621063E-01  0.650458E-01
  0.660876E-01  0.650458E-01  0.621063E-01  0.577926E-01  0.528012E-01  0.477816E-01
  0.432357E-01  0.394869E-01  0.366397E-01  0.345416E-01  0.328388E-01  0.312051E-01
  0.295399E-01  0.279209E-01  0.264857E-01  0.253422E-01  0.244268E-01  0.235271E-01
  0.224991E-01  0.213397E-01  0.201287E-01  0.189714E-01  0.179094E-01  0.169203E-01
  0.160079E-01  0.152281E-01  0.146691E-01  0.143973E-01  0.143649E-01  0.144294E-01
  0.144658E-01  0.175460E-01  0.174904E-01  0.173615E-01  0.172855E-01  0.174077E-01
  0.177763E-01  0.183396E-01  0.190151E-01  0.197568E-01  0.205711E-01  0.214903E-01
  0.225089E-01  0.235271E-01  0.244226E-01  0.251331E-01  0.256885E-01  0.262444E-01
  0.269767E-01  0.279209E-01  0.289839E-01  0.300564E-01  0.310792E-01  0.320809E-01
  0.332032E-01  0.346246E-01  0.364289E-01  0.385693E-01  0.408666E-01  0.429814E-01
  0.444814E-01  0.450228E-01  0.444814E-01  0.429814E-01  0.408666E-01  0.385693E-01
  0.364289E-01  0.346246E-01  0.332032E-01  0.320809E-01  0.310792E-01  0.300564E-01
  0.289839E-01  0.279209E-01  0.269767E-01  0.262444E-01  0.256885E-01  0.251331E-01
  0.244226E-01  0.235271E-01  0.225089E-01  0.214903E-01  0.205711E-01  0.197568E-01
  0.190151E-01  0.183396E-01  0.177763E-01  0.174077E-01  0.172855E-01  0.173615E-01
  0.174904E-01  0.175460E-01  0.214145E-01  0.213409E-01  0.211520E-01  0.209699E-01
  0.209357E-01  0.210888E-01  0.213841E-01  0.217464E-01  0.221294E-01  0.225458E-01
  0.230485E-01  0.236874E-01  0.244268E-01  0.251331E-01  0.256718E-01  0.259887E-01
  0.261320E-01  0.262444E-01  0.264857E-01  0.268975E-01  0.274035E-01  0.279233E-01
  0.283958E-01  0.288018E-01  0.292016E-01  0.296874E-01  0.303353E-01  0.311586E-01
  0.320272E-01  0.326911E-01  0.329372E-01  0.326911E-01  0.320272E-01  0.311586E-01
  0.303353E-01  0.296874E-01  0.292016E-01  0.288018E-01  0.283958E-01  0.279233E-01
  0.274035E-01  0.268975E-01  0.264857E-01  0.262444E-01  0.261320E-01  0.259887E-01
  0.256718E-01  0.251331E-01  0.244268E-01  0.236874E-01  0.230485E-01  0.225458E-01
  0.221294E-01  0.217464E-01  0.213841E-01  0.210888E-01  0.209357E-01  0.209699E-01
  0.211520E-01  0.213409E-01  0.214145E-01  0.261026E-01  0.259887E-01  0.256885E-01
  0.253422E-01  0.251058E-01  0.250193E-01  0.250271E-01  0.250559E-01  0.250559E-01
  0.250271E-01  0.250193E-01  0.251058E-01  0.253422E-01  0.256885E-01  0.259887E-01
  0.261026E-01  0.259887E-01  0.256885E-01  0.253422E-01  0.251058E-01  0.250193E-01
  0.250271E-01  0.250559E-01  0.250559E-01  0.250271E-01  0.250193E-01  0.251058E-01
  0.253422E-01  0.256885E-01  0.259887E-01  0.261026E-01  0.259887E-01  0.256885E-01
  0.253422E-01  0.251058E-01  0.250193E-01  0.250271E-01  0.250559E-01  0.250559E-01
  0.250271E-01  0.250193E-01  0.251058E-01  0.253422E-01  0.256885E-01  0.259887E-01
  0.261026E-01  0.259887E-01  0.256885E-01  0.253422E-01  0.251058E-01  0.250193E-01
  0.250271E-01  0.250559E-01  0.250559E-01  0.250271E-01  0.250193E-01  0.251058E-01
  0.253422E-01  0.256885E-01  0.259887E-01  0.261026E-01  0.329372E-01  0.326911E-01
  0.320272E-01  0.311586E-01  0.303353E-01  0.296874E-01  0.292016E-01  0.288018E-01
  0.283959E-01  0.279233E-01  0.274035E-01  0.268975E-01  0.264857E-01  0.262444E-01
  0.261320E-01  0.259887E-01  0.256718E-01  0.251331E-01  0.244268E-01  0.236874E-01
  0.230485E-01  0.225458E-01  0.221294E-01  0.217464E-01  0.213841E-01  0.210888E-01
  0.209357E-01  0.209699E-01  0.211520E-01  0.213409E-01  0.214145E-01  0.213409E-01
  0.211520E-01  0.209699E-01  0.209357E-01  0.210888E-01  0.213841E-01  0.217464E-01
  0.221294E-01  0.225458E-01  0.230485E-01  0.236874E-01  0.244268E-01  0.251331E-01
  0.256718E-01  0.259887E-01  0.261320E-01  0.262444E-01  0.264857E-01  0.268975E-01
  0.274035E-01  0.279233E-01  0.283959E-01  0.288018E-01  0.292016E-01  0.296874E-01
  0.303353E-01  0.311586E-01  0.320272E-01  0.326911E-01  0.329372E-01  0.450228E-01
  0.444814E-01  0.429814E-01  0.408666E-01  0.385693E-01  0.364289E-01  0.346246E-01
  0.332032E-01  0.320809E-01  0.310792E-01  0.300564E-01  0.289839E-01  0.279209E-01
  0.269767E-01  0.262444E-01  0.256885E-01  0.251331E-01  0.244226E-01  0.235271E-01
  0.225089E-01  0.214903E-01  0.205711E-01  0.197568E-01  0.190151E-01  0.183396E-01
  0.177763E-01  0.174077E-01  0.172855E-01  0.173615E-01  0.174904E-01  0.175460E-01
  0.174904E-01  0.173615E-01  0.172855E-01  0.174077E-01  0.177763E-01  0.183396E-01
  0.190151E-01  0.197568E-01  0.205711E-01  0.214903E-01  0.225089E-01  0.235271E-01
  0.244226E-01  0.251331E-01  0.256885E-01  0.262444E-01  0.269767E-01  0.279209E-01
  0.289839E-01  0.300564E-01  0.310792E-01  0.320809E-01  0.332032E-01  0.346246E-01
  0.364289E-01  0.385693E-01  0.408666E-01  0.429814E-01  0.444814E-01  0.450228E-01
  0.660876E-01  0.650458E-01  0.621063E-01  0.577926E-01  0.528012E-01  0.477816E-01
  0.432357E-01  0.394869E-01  0.366397E-01  0.345416E-01  0.328388E-01  0.312051E-01
  0.295399E-01  0.279209E-01  0.264857E-01  0.253422E-01  0.244268E-01  0.235271E-01
  0.224991E-01  0.213397E-01  0.201287E-01  0.189713E-01  0.179094E-01  0.169203E-01
  0.160079E-01  0.152281E-01  0.146691E-01  0.143973E-01  0.143649E-01  0.144294E-01
  0.144658E-01  0.144294E-01  0.143649E-01  0.143973E-01  0.146691E-01  0.152281E-01
  0.160079E-01  0.169203E-01  0.179094E-01  0.189713E-01  0.201287E-01  0.213397E-01
  0.224991E-01  0.235271E-01  0.244268E-01  0.253422E-01  0.264857E-01  0.279209E-01
  0.295399E-01  0.312051E-01  0.328388E-01  0.345416E-01  0.366397E-01  0.394869E-01
  0.432357E-01  0.477816E-01  0.528012E-01  0.577926E-01  0.621063E-01  0.650458E-01
  0.660876E-01  0.993716E-01  0.976017E-01  0.925658E-01  0.850170E-01  0.759633E-01
  0.664393E-01  0.574011E-01  0.496005E-01  0.434546E-01  0.390019E-01  0.358802E-01
  0.334552E-01  0.312051E-01  0.289839E-01  0.268975E-01  0.251058E-01  0.236874E-01
  0.225089E-01  0.213397E-01  0.200802E-01  0.187630E-01  0.174859E-01  0.163260E-01
  0.152631E-01  0.142766E-01  0.134133E-01  0.127578E-01  0.123837E-01  0.122581E-01
  0.122581E-01  0.122728E-01  0.122581E-01  0.122581E-01  0.123837E-01  0.127578E-01
  0.134133E-01  0.142766E-01  0.152631E-01  0.163260E-01  0.174859E-01  0.187630E-01
  0.200802E-01  0.213397E-01  0.225089E-01  0.236874E-01  0.251058E-01  0.268975E-01
  0.289839E-01  0.312051E-01  0.334552E-01  0.358802E-01  0.390019E-01  0.434546E-01
  0.496005E-01  0.574011E-01  0.664393E-01  0.759633E-01  0.850170E-01  0.925658E-01
  0.976017E-01  0.993716E-01  0.150028E+00  0.146883E+00  0.138099E+00  0.125281E+00
  0.110231E+00  0.944376E-01  0.791183E-01  0.653891E-01  0.541291E-01  0.456949E-01
  0.398507E-01  0.358802E-01  0.328388E-01  0.300564E-01  0.274035E-01  0.250193E-01
  0.230485E-01  0.214903E-01  0.201287E-01  0.187630E-01  0.173630E-01  0.160068E-01
  0.147989E-01  0.137524E-01  0.128223E-01  0.120186E-01  0.113948E-01  0.110054E-01
  0.108370E-01  0.107999E-01  0.108005E-01  0.107999E-01  0.108370E-01  0.110054E-01
  0.113948E-01  0.120186E-01  0.128223E-01  0.137524E-01  0.147989E-01  0.160068E-01
  0.173630E-01  0.187630E-01  0.201287E-01  0.214903E-01  0.230485E-01  0.250193E-01
  0.274035E-01  0.300564E-01  0.328388E-01  0.358802E-01  0.398507E-01  0.456949E-01
  0.541291E-01  0.653891E-01  0.791183E-01  0.944376E-01  0.110231E+00  0.125281E+00
  0.138099E+00  0.146883E+00  0.150028E+00  0.241605E+00  0.234531E+00  0.215370E+00
  0.189074E+00  0.160816E+00  0.133910E+00  0.109553E+00  0.880366E-01  0.698919E-01
  0.557650E-01  0.456949E-01  0.390019E-01  0.345416E-01  0.310792E-01  0.279233E-01
  0.250271E-01  0.225458E-01  0.205711E-01  0.189713E-01  0.174859E-01  0.160068E-01
  0.145865E-01  0.133364E-01  0.123150E-01  0.114760E-01  0.107829E-01  0.102463E-01
  0.988450E-02  0.970047E-02  0.964192E-02  0.963306E-02  0.964192E-02  0.970047E-02
  0.988450E-02  0.102463E-01  0.107829E-01  0.114760E-01  0.123150E-01  0.133364E-01
  0.145865E-01  0.160068E-01  0.174859E-01  0.189713E-01  0.205711E-01  0.225458E-01
  0.250271E-01  0.279233E-01  0.310792E-01  0.345416E-01  0.390019E-01  0.456949E-01
  0.557650E-01  0.698919E-01  0.880366E-01  0.109553E+00  0.133910E+00  0.160816E+00
  0.189074E+00  0.215370E+00  0.234531E+00  0.241605E+00  0.440323E+00  0.422671E+00
  0.375353E+00  0.312294E+00  0.248643E+00  0.194218E+00  0.151476E+00  0.118099E+00
  0.912336E-01  0.698919E-01  0.541291E-01  0.434546E-01  0.366397E-01  0.320809E-01
  0.283958E-01  0.250559E-01  0.221294E-01  0.197568E-01  0.179094E-01  0.163260E-01
  0.147989E-01  0.133364E-01  0.120515E-01  0.110441E-01  0.102844E-01  0.969177E-02
  0.923018E-02  0.888364E-02  0.866757E-02  0.857170E-02  0.854680E-02  0.857170E-02
  0.866757E-02  0.888364E-02  0.923018E-02  0.969177E-02  0.102844E-01  0.110441E-01
  0.120515E-01  0.133364E-01  0.147989E-01  0.163260E-01  0.179094E-01  0.197568E-01
  0.221294E-01  0.250559E-01  0.283958E-01  0.320809E-01  0.366397E-01  0.434546E-01
  0.541291E-01  0.698919E-01  0.912336E-01  0.118099E+00  0.151476E+00  0.194218E+00
  0.248643E+00  0.312294E+00  0.375353E+00  0.422671E+00  0.440323E+00  0.849474E+00
  0.811328E+00  0.707169E+00  0.565079E+00  0.420644E+00  0.301107E+00  0.215530E+00
  0.158083E+00  0.118099E+00  0.880366E-01  0.653891E-01  0.496005E-01  0.394869E-01
  0.332032E-01  0.288018E-01  0.250559E-01  0.217464E-01  0.190151E-01  0.169203E-01
  0.152631E-01  0.137524E-01  0.123150E-01  0.110441E-01  0.100573E-01  0.935265E-02
  0.882333E-02  0.839324E-02  0.802916E-02  0.775906E-02  0.761014E-02  0.756376E-02
  0.761014E-02  0.775906E-02  0.802916E-02  0.839324E-02  0.882333E-02  0.935265E-02
  0.100573E-01  0.110441E-01  0.123150E-01  0.137524E-01  0.152631E-01  0.169203E-01
  0.190151E-01  0.217464E-01  0.250559E-01  0.288018E-01  0.332032E-01  0.394869E-01
  0.496005E-01  0.653891E-01  0.880366E-01  0.118099E+00  0.158083E+00  0.215530E+00
  0.301107E+00  0.420644E+00  0.565079E+00  0.707169E+00  0.811328E+00  0.849474E+00
  0.147493E+01  0.141911E+01  0.125634E+01  0.101081E+01  0.736125E+00  0.494967E+00
  0.322530E+00  0.215530E+00  0.151476E+00  0.109553E+00  0.791183E-01  0.574011E-01
  0.432357E-01  0.346246E-01  0.292016E-01  0.250271E-01  0.213841E-01  0.183396E-01
  0.160079E-01  0.142766E-01  0.128223E-01  0.114760E-01  0.102844E-01  0.935265E-02
  0.870040E-02  0.820975E-02  0.777808E-02  0.737715E-02  0.704725E-02  0.684095E-02
  0.677126E-02  0.684095E-02  0.704725E-02  0.737715E-02  0.777808E-02  0.820975E-02
  0.870040E-02  0.935265E-02  0.102844E-01  0.114760E-01  0.128223E-01  0.142766E-01
  0.160079E-01  0.183396E-01  0.213841E-01  0.250271E-01  0.292016E-01  0.346246E-01
  0.432357E-01  0.574011E-01  0.791183E-01  0.109553E+00  0.151476E+00  0.215530E+00
  0.322530E+00  0.494967E+00  0.736125E+00  0.101081E+01  0.125634E+01  0.141911E+01
  0.147493E+01  0.198937E+01  0.195716E+01  0.183332E+01  0.157465E+01  0.119891E+01
  0.804758E+00  0.494967E+00  0.301107E+00  0.194218E+00  0.133910E+00  0.944376E-01
  0.664393E-01  0.477816E-01  0.364289E-01  0.296874E-01  0.250193E-01  0.210888E-01
  0.177763E-01  0.152281E-01  0.134133E-01  0.120186E-01  0.107829E-01  0.969177E-02
  0.882333E-02  0.820975E-02  0.774301E-02  0.731170E-02  0.689559E-02  0.653372E-02
  0.628789E-02  0.620061E-02  0.628789E-02  0.653372E-02  0.689559E-02  0.731170E-02
  0.774301E-02  0.820975E-02  0.882333E-02  0.969177E-02  0.107829E-01  0.120186E-01
  0.134133E-01  0.152281E-01  0.177763E-01  0.210888E-01  0.250193E-01  0.296874E-01
  0.364289E-01  0.477816E-01  0.664393E-01  0.944376E-01  0.133910E+00  0.194218E+00
  0.301107E+00  0.494967E+00  0.804758E+00  0.119891E+01  0.157465E+01  0.183332E+01
  0.195716E+01  0.198937E+01  0.188760E+01  0.193915E+01  0.202419E+01  0.197686E+01
  0.167846E+01  0.119891E+01  0.736125E+00  0.420644E+00  0.248643E+00  0.160816E+00
  0.110231E+00  0.759633E-01  0.528012E-01  0.385693E-01  0.303353E-01  0.251058E-01
  0.209357E-01  0.174077E-01  0.146691E-01  0.127578E-01  0.113948E-01  0.102463E-01
  0.923018E-02  0.839324E-02  0.777808E-02  0.731170E-02  0.688953E-02  0.648822E-02
  0.613619E-02  0.589200E-02  0.580510E-02  0.589200E-02  0.613619E-02  0.648822E-02
  0.688953E-02  0.731170E-02  0.777808E-02  0.839324E-02  0.923018E-02  0.102463E-01
  0.113948E-01  0.127578E-01  0.146691E-01  0.174077E-01  0.209357E-01  0.251058E-01
  0.303353E-01  0.385693E-01  0.528012E-01  0.759633E-01  0.110231E+00  0.160816E+00
  0.248643E+00  0.420644E+00  0.736125E+00  0.119891E+01  0.167846E+01  0.197686E+01
  0.202419E+01  0.193915E+01  0.188760E+01  0.115310E+01  0.129084E+01  0.164012E+01
  0.197149E+01  0.197686E+01  0.157465E+01  0.101081E+01  0.565079E+00  0.312294E+00
  0.189074E+00  0.125281E+00  0.850170E-01  0.577926E-01  0.408666E-01  0.311586E-01
  0.253422E-01  0.209699E-01  0.172855E-01  0.143973E-01  0.123837E-01  0.110054E-01
  0.988450E-02  0.888364E-02  0.802916E-02  0.737715E-02  0.689559E-02  0.648822E-02
  0.612092E-02  0.581550E-02  0.561851E-02  0.555350E-02  0.561851E-02  0.581550E-02
  0.612092E-02  0.648822E-02  0.689559E-02  0.737715E-02  0.802916E-02  0.888364E-02
  0.988450E-02  0.110054E-01  0.123837E-01  0.143973E-01  0.172855E-01  0.209699E-01
  0.253422E-01  0.311586E-01  0.408666E-01  0.577926E-01  0.850170E-01  0.125281E+00
  0.189074E+00  0.312294E+00  0.565079E+00  0.101081E+01  0.157465E+01  0.197686E+01
  0.197149E+01  0.164012E+01  0.129084E+01  0.115310E+01  0.391918E+00  0.538554E+00
  0.100009E+01  0.164012E+01  0.202419E+01  0.183332E+01  0.125634E+01  0.707169E+00
  0.375353E+00  0.215370E+00  0.138099E+00  0.925658E-01  0.621063E-01  0.429814E-01
  0.320272E-01  0.256885E-01  0.211520E-01  0.173615E-01  0.143649E-01  0.122581E-01
  0.108370E-01  0.970047E-02  0.866757E-02  0.775906E-02  0.704725E-02  0.653372E-02
  0.613619E-02  0.581550E-02  0.558054E-02  0.545030E-02  0.541358E-02  0.545030E-02
  0.558054E-02  0.581550E-02  0.613619E-02  0.653372E-02  0.704725E-02  0.775906E-02
  0.866757E-02  0.970047E-02  0.108370E-01  0.122581E-01  0.143649E-01  0.173615E-01
  0.211520E-01  0.256885E-01  0.320272E-01  0.429814E-01  0.621063E-01  0.925658E-01
  0.138099E+00  0.215370E+00  0.375353E+00  0.707169E+00  0.125634E+01  0.183332E+01
  0.202419E+01  0.164012E+01  0.100009E+01  0.538554E+00  0.391918E+00  0.516207E-01
  0.139705E+00  0.538554E+00  0.129084E+01  0.193915E+01  0.195716E+01  0.141911E+01
  0.811328E+00  0.422671E+00  0.234531E+00  0.146883E+00  0.976017E-01  0.650458E-01
  0.444814E-01  0.326911E-01  0.259887E-01  0.213409E-01  0.174904E-01  0.144294E-01
  0.122581E-01  0.107999E-01  0.964192E-02  0.857170E-02  0.761014E-02  0.684095E-02
  0.628789E-02  0.589200E-02  0.561851E-02  0.545030E-02  0.536973E-02  0.534994E-02
  0.536973E-02  0.545030E-02  0.561851E-02  0.589200E-02  0.628789E-02  0.684095E-02
  0.761014E-02  0.857170E-02  0.964192E-02  0.107999E-01  0.122581E-01  0.144294E-01
  0.174904E-01  0.213409E-01  0.259887E-01  0.326911E-01  0.444814E-01  0.650458E-01
  0.976017E-01  0.146883E+00  0.234531E+00  0.422671E+00  0.811328E+00  0.141911E+01
  0.195716E+01  0.193915E+01  0.129084E+01  0.538554E+00  0.139705E+00  0.516207E-01
  0.137251E-03  0.516207E-01  0.391918E+00  0.115310E+01  0.188760E+01  0.198937E+01
  0.147493E+01  0.849474E+00  0.440323E+00  0.241605E+00  0.150028E+00  0.993716E-01
  0.660876E-01  0.450228E-01  0.329372E-01  0.261026E-01  0.214145E-01  0.175460E-01
  0.144658E-01  0.122728E-01  0.108005E-01  0.963306E-02  0.854680E-02  0.756376E-02
  0.677126E-02  0.620061E-02  0.580510E-02  0.555350E-02  0.541358E-02  0.534994E-02
  0.533446E-02  0.534994E-02  0.541358E-02  0.555350E-02  0.580510E-02  0.620061E-02
  0.677126E-02  0.756376E-02  0.854680E-02  0.963306E-02  0.108005E-01  0.122728E-01
  0.144658E-01  0.175460E-01  0.214145E-01  0.261026E-01  0.329372E-01  0.450228E-01
  0.660876E-01  0.993716E-01  0.150028E+00  0.241605E+00  0.440323E+00  0.849474E+00
  0.147493E+01  0.198937E+01  0.188760E+01  0.115310E+01  0.391918E+00  0.516207E-01
  0.137251E-03  0.516207E-01  0.139705E+00  0.538554E+00  0.129084E+01  0.193915E+01
  0.195716E+01  0.141911E+01  0.811328E+00  0.422671E+00  0.234531E+00  0.146883E+00
  0.976017E-01  0.650458E-01  0.444814E-01  0.326911E-01  0.259887E-01  0.213409E-01
  0.174904E-01  0.144294E-01  0.122581E-01  0.107999E-01  0.964192E-02  0.857170E-02
  0.761014E-02  0.684095E-02  0.628789E-02  0.589200E-02  0.561851E-02  0.545030E-02
  0.536973E-02  0.534994E-02  0.536973E-02  0.545030E-02  0.561851E-02  0.589200E-02
  0.628789E-02  0.684095E-02  0.761014E-02  0.857170E-02  0.964192E-02  0.107999E-01
  0.122581E-01  0.144294E-01  0.174904E-01  0.213409E-01  0.259887E-01  0.326911E-01
  0.444814E-01  0.650458E-01  0.976017E-01  0.146883E+00  0.234531E+00  0.422671E+00
  0.811328E+00  0.141911E+01  0.195716E+01  0.193915E+01  0.129084E+01  0.538554E+00
  0.139705E+00  0.516207E-01  0.391918E+00  0.538554E+00  0.100009E+01  0.164012E+01
  0.202419E+01  0.183332E+01  0.125634E+01  0.707169E+00  0.375353E+00  0.215370E+00
  0.138099E+00  0.925658E-01  0.621063E-01  0.429814E-01  0.320272E-01  0.256885E-01
  0.211520E-01  0.173615E-01  0.143649E-01  0.122581E-01  0.108370E-01  0.970047E-02
  0.866757E-02  0.775906E-02  0.704725E-02  0.653372E-02  0.613619E-02  0.581550E-02
  0.558054E-02  0.545030E-02  0.541358E-02  0.545030E-02  0.558054E-02  0.581550E-02
  0.613619E-02  0.653372E-02  0.704725E-02  0.775906E-02  0.866757E-02  0.970047E-02
  0.108370E-01  0.122581E-01  0.143649E-01  0.173615E-01  0.211520E-01  0.256885E-01
  0.320272E-01  0.429814E-01  0.621063E-01  0.925658E-01  0.138099E+00  0.215370E+00
  0.375353E+00  0.707169E+00  0.125634E+01  0.183332E+01  0.202419E+01  0.164012E+01
  0.100009E+01  0.538554E+00  0.391918E+00  0.115310E+01  0.129084E+01  0.164012E+01
  0.197149E+01  0.197686E+01  0.157465E+01  0.101081E+01  0.565079E+00  0.312294E+00
  0.189074E+00  0.125281E+00  0.850170E-01  0.577926E-01  0.408666E-01  0.311586E-01
  0.253422E-01  0.209699E-01  0.172855E-01  0.143973E-01  0.123837E-01  0.110054E-01
  0.988450E-02  0.888364E-02  0.802916E-02  0.737715E-02  0.689559E-02  0.648822E-02
  0.612092E-02  0.581550E-02  0.561851E-02  0.555350E-02  0.561851E-02  0.581550E-02
  0.612092E-02  0.648822E-02  0.689559E-02  0.737715E-02  0.802916E-02  0.888364E-02